  4
# step:    0,  t(fs):  0.000,   E =   0.463107E-02,   Ek =   0.475022E-02,   Ep =  -0.119151E-03
 Ar   1.8897261000000001        1.8897261000000001        1.8897261000000001     
 Ar   13.228082700000000        13.228082700000000        13.228082700000000     
 Ar   18.897261000000000        18.897261000000000        18.897261000000000     
 Ar   32.125343700000002        32.125343700000002        32.125343700000002     
  4
# step:    1,  t(fs):     5.000,   E =   0.463182E-02,   Ek =   0.474973E-02,   Ep =  -0.117913E-03
 Ar   1.8793342823695307        1.8910243569693181        1.8690528802273936     
 Ar   13.260317434817214        13.238765738156228        13.213566115331586     
 Ar   18.894170312438476        18.911069668556259        18.945162383459433     
 Ar   32.106591470374781        32.099553736318192        32.112632120981587     
  4
# step:    2,  t(fs):    10.000,   E =   0.463256E-02,   Ek =   0.474922E-02,   Ep =  -0.116661E-03
 Ar   1.8689552299415275        1.8923353712322053        1.8483924325501810     
 Ar   13.292572720566966        13.249469467505135        13.199070438139955     
 Ar   18.891059073944412        18.924857645919840        18.993042859442085     
 Ar   32.087826475547097        32.073751015342815        32.099907769867777     
  4
# step:    3,  t(fs):    15.000,   E =   0.463330E-02,   Ek =   0.474870E-02,   Ep =  -0.115397E-03
 Ar   1.8585888179897108        1.8936590103036968        1.8277446390040946     
 Ar   13.324848170508400        13.260193638024720        13.184595629226486     
 Ar   18.887927671258666        18.938625182112741        19.040902467146577     
 Ar   32.069048840243227        32.047935669558832        32.087170764622840     
  4
# step:    4,  t(fs):    20.000,   E =   0.463404E-02,   Ek =   0.474816E-02,   Ep =  -0.114120E-03
 Ar   1.8482349224463497        1.8949951425064773        1.8071093821534687     
 Ar   13.357143398399050        13.270937996594952        13.170141640748751     
 Ar   18.884776490623704        18.952372530254998        19.088741254415332     
 Ar   32.050258688530896        32.022107830643563        32.074421222682446     
  4
# step:    5,  t(fs):    25.000,   E =   0.463477E-02,   Ek =   0.474760E-02,   Ep =  -0.112833E-03
 Ar   1.8378934199133858        1.8963436369808617        1.7864865451033585     
 Ar   13.389458018770053        13.281702287223940        13.155708416371096     
 Ar   18.881605917508388        18.966099946338499        19.136559277584009     
 Ar   32.031456143808171        31.996267629456689        32.061659260941539     
  4
# step:    6,  t(fs):    30.000,   E =   0.463550E-02,   Ek =   0.474703E-02,   Ep =  -0.111535E-03
 Ar   1.8275641876731381        1.8977043636943329        1.7658760115112617     
 Ar   13.421791647195080        13.292486251273926        13.141295891424406     
 Ar   18.878416336339050        18.979807689001003        19.184356601321721     
 Ar   32.012641328792732        31.970415196030729        32.048884995742618     
  4
# step:    7,  t(fs):    35.000,   E =   0.463622E-02,   Ek =   0.474645E-02,   Ep =  -0.110229E-03
 Ar   1.8172471036985938        1.8990771934506390        1.7452776655984517     
 Ar   13.454143900552625        13.303289627686684        13.126903993074619     
 Ar   18.875208130237194        18.993496019300732        19.232133298462529     
 Ar   31.993814365511586        31.944550659561934        32.036098542864409     
  4
# step:    8,  t(fs):    40.000,   E =   0.463693E-02,   Ek =   0.474585E-02,   Ep =  -0.108913E-03
 Ar   1.8069420466632917        1.9004619978984578        1.7246913921609210     
 Ar   13.486514397281358        13.314112153207985        13.112532640499554     
 Ar   18.871981680764151        19.007165200491919        19.279889449828616     
 Ar   31.974975375291198        31.918674148401628        32.023300017510920     
  4
# step:    9,  t(fs):    45.000,   E =   0.463764E-02,   Ek =   0.474523E-02,   Ep =  -0.107590E-03
 Ar   1.7966488959508009        1.9018586495396350        1.7041170765799432     
 Ar   13.518902757628245        13.324953562610743        13.098181745073564     
 Ar   18.868737367672953        19.020815497801649        19.327625144045626     
 Ar   31.956124478747999        31.892785790047963        32.010489534300874     
  4
# step:   10,  t(fs):    50.000,   E =   0.463835E-02,   Ek =   0.474461E-02,   Ep =  -0.106260E-03
 Ar   1.7863675316638008        1.9032670217369991        1.6835546048322538     
 Ar   13.551308603889151        13.335813588916510        13.083851210559564     
 Ar   18.865475568667737        19.034447178208371        19.375340477350647     
 Ar   31.937261795779310        31.866885711138110        31.997667207257543     
  4
# step:   11,  t(fs):    55.000,   E =   0.463905E-02,   Ek =   0.474397E-02,   Ep =  -0.104924E-03
 Ar   1.7760978346327680        1.9046869887217648        1.6630038634998570     
 Ar   13.583731560641676        13.346691963614964        13.069540933307913     
 Ar   18.862196659170902        19.048060510222406        19.423035553393319     
 Ar   31.918387445554654        31.840974037440855        31.984833149798920     
  4
# step:   12,  t(fs):    60.000,   E =   0.463974E-02,   Ek =   0.474333E-02,   Ep =  -0.103583E-03
 Ar   1.7658396864242745        1.9061184256005255        1.6424647397794598     
 Ar   13.616171254970009        13.357588416881047        13.055250802461680     
 Ar   18.858901012098258        19.061655763668810        19.470710483030572     
 Ar   31.899501546507459        31.815050893849605        31.971987474728298     
  4
# step:   13,  t(fs):    65.000,   E =   0.464043E-02,   Ek =   0.474267E-02,   Ep =  -0.102237E-03
 Ar   1.7555929693489019        1.9075612083618458        1.6219371214915419     
 Ar   13.648627316681587        13.368502677789454        13.040980700167774     
 Ar   18.855588997642368        19.075233209472891        19.518365384115498     
 Ar   31.880604216327143        31.789116404375797        31.959130294225197     
  4
# step:   14,  t(fs):    70.000,   E =   0.464112E-02,   Ek =   0.474201E-02,   Ep =  -0.100887E-03
 Ar   1.7453575664687799        1.9090152138824579        1.6014208970890602     
 Ar   13.681099378515359        13.379434474526128        13.026730501793427     
 Ar   18.852260983064284        19.088793119448706        19.566000381280865     
 Ar   31.861695571951575        31.763170692142698        31.946261719836659     
  4
# step:   15,  t(fs):    75.000,   E =   0.464180E-02,   Ek =   0.474133E-02,   Ep =  -0.995345E-04
 Ar   1.7351333616047517        1.9104803199330695        1.5809159556657986     
 Ar   13.713587076341524        13.390383534596493        13.012500076147512     
 Ar   18.848917332493809        19.102335766090832        19.613615605717801     
 Ar   31.842775729559914        31.737213879379599        31.933381862468902     
  4
# step:   16,  t(fs):    80.000,   E =   0.464247E-02,   Ek =   0.474065E-02,   Ep =  -0.981796E-04
 Ar   1.7249202393431726        1.9119564051837910        1.5604221869643622     
 Ar   13.746090049352585        13.401349585030108        12.998289285706193     
 Ar   18.845558406738437        19.115861422369704        19.661211194950141     
 Ar   31.823844804565805        31.711246087416388        31.920490832379318     
  4
# step:   17,  t(fs):    85.000,   E =   0.464314E-02,   Ek =   0.473996E-02,   Ep =  -0.968231E-04
 Ar   1.7147180850423485        1.9134433492091856        1.5399394813838256     
 Ar   13.778607940245621        13.412332352581499        12.984097986842363     
 Ar   18.842184563101089        19.129370361530800        19.708787292604992     
 Ar   31.804902911610942        31.685267436678505        31.907588739168833     
  4
# step:   18,  t(fs):    90.000,   E =   0.464380E-02,   Ek =   0.473927E-02,   Ep =  -0.954658E-04
 Ar   1.7045267848386196        1.9149410324929534        1.5194677299870372     
 Ar   13.811140395395672        13.423331563926897        12.969926030058389     
 Ar   18.838796155206726        19.142862856897889        19.756344048179987     
 Ar   31.785950164558983        31.659278046682250        31.894675691774601     
  4
# step:   19,  t(fs):    95.000,   E =   0.464446E-02,   Ek =   0.473857E-02,   Ep =  -0.941085E-04
 Ar   1.6943462256520951        1.9164493364322523        1.4990068245075838     
 Ar   13.843687065020182        13.434346945856632        12.955773260221612     
 Ar   18.835393532837905        19.156339181680643        19.803881616807786     
 Ar   31.766986676489818        31.633278036030461        31.881751798463036     
  4
# step:   20,  t(fs):   100.000,   E =   0.464511E-02,   Ek =   0.473787E-02,   Ep =  -0.927517E-04
 Ar   1.6841762951920436        1.9179681433416649        1.4785566573564242     
 Ar   13.876247603334457        13.445378225462978        12.941639516802130     
 Ar   18.831977041779318        19.169799608786786        19.851400159018286     
 Ar   31.748012559694182        31.607267522408559        31.868817166823174     
  4
# step:   21,  t(fs):   105.000,   E =   0.464576E-02,   Ek =   0.473716E-02,   Ep =  -0.913961E-04
 Ar   1.6740168819619474        1.9194973364568175        1.4581171216281932     
 Ar   13.908821668698108        13.456425130323217        12.927524634112345     
 Ar   18.828547023671355        19.183244410639034        19.898899840499094     
 Ar   31.729027925668589        31.581246622580920        31.855871903760384     
  4
# step:   22,  t(fs):   110.000,   E =   0.464640E-02,   Ek =   0.473645E-02,   Ep =  -0.900425E-04
 Ar   1.6638678752642255        1.9210367999376599        1.4376881111071826     
 Ar   13.941408923752485        13.467487388677744        12.913428441547772     
 Ar   18.825103815872666        19.196673858996995        19.946380831854686     
 Ar   31.710032885110621        31.555215452387589        31.842916115490375     
  4
# step:   23,  t(fs):   115.000,   E =   0.464704E-02,   Ek =   0.473573E-02,   Ep =  -0.886914E-04
 Ar   1.6537291652046306        1.9225864188714086        1.4172695202730048     
 Ar   13.974009035549122        13.478564729603038        12.899350763828661     
 Ar   18.821647751331721        19.210088224784190        19.993843308364820     
 Ar   31.691027547914526        31.529174126741353        31.829949907533532     
  4
# step:   24,  t(fs):   120.000,   E =   0.464767E-02,   Ek =   0.473502E-02,   Ep =  -0.873434E-04
 Ar   1.6436006426963272        1.9241460792751657        1.3968612443059436     
 Ar   14.006621675669235        13.489656883179309        12.885291421241913     
 Ar   18.818179158467295        19.223487777920408        20.041287449742587     
 Ar   31.672012023167142        31.503122759625107        31.816973384709573     
  4
# step:   25,  t(fs):   125.000,   E =   0.464830E-02,   Ek =   0.473430E-02,   Ep =  -0.859993E-04
 Ar   1.6334821994636570        1.9257156680982164        1.3764631790919979     
 Ar   14.039246520334345        13.500763580652730        12.871250229882879     
 Ar   18.814698361057875        19.236872787159474        20.088713439892640     
 Ar   31.652986419144124        31.477061464089569        31.803986651132497     
  4
# step:   26,  t(fs):   130.000,   E =   0.464892E-02,   Ek =   0.473358E-02,   Ep =  -0.846594E-04
 Ar   1.6233737280455962        1.9272950732240142        1.3560752212276228     
 Ar   14.071883250508087        13.511884554592077        12.857227001896556     
 Ar   18.811205678139824        19.250243519932614        20.136121466669984     
 Ar   31.633950843306497        31.450990352251285        31.790989810205851     
  4
# step:   27,  t(fs):   135.000,   E =   0.464954E-02,   Ek =   0.473286E-02,   Ep =  -0.833245E-04
 Ar   1.6132751217989130        1.9288841834718597        1.3356972680241754     
 Ar   14.104531551989318        13.523019539039694        12.843221545717768     
 Ar   18.807701423914281        19.263600242197484        20.183511721639793     
 Ar   31.614905402297492        31.424909535290951        31.777982964618278     
  4
# step:   28,  t(fs):   140.000,   E =   0.465015E-02,   Ek =   0.473214E-02,   Ep =  -0.819950E-04
 Ar   1.6031862749010291        1.9304828885982805        1.3153292175120679     
 Ar   14.137191115496645        13.534168269656695        12.829233666309918     
 Ar   18.804185907662642        19.276943218292971        20.230884399838661     
 Ar   31.595850201939687        31.398819123452043        31.764966216339367     
  4
# step:   29,  t(fs):   145.000,   E =   0.465075E-02,   Ek =   0.473142E-02,   Ep =  -0.806716E-04
 Ar   1.5931070823525932        1.9320910792981187        1.2949709684446360     
 Ar   14.169861636744498        13.545330483862298        12.815263165401898     
 Ar   18.800659433670479        19.290272710799858        20.278239699537700     
 Ar   31.576785347232434        31.372719226039717        31.751939666615780     
  4
# step:   30,  t(fs):   150.000,   E =   0.465135E-02,   Ek =   0.473071E-02,   Ep =  -0.793546E-04
 Ar   1.5830374399797720        1.9337086472053335        1.2746224203017265     
 Ar   14.202542816510897        13.556505920967268        12.801309841722789     
 Ar   18.797122301159767        19.303588980407376        20.325577822007830     
 Ar   31.557710942349566        31.346609951420014        31.738903415967670     
  4
# step:   31,  t(fs):   155.000,   E =   0.465195E-02,   Ek =   0.472999E-02,   Ep =  -0.780446E-04
 Ar   1.5729772444362629        1.9353354848935245        1.2542834732930097     
 Ar   14.235234360697076        13.567694322301401        12.787373491233968     
 Ar   18.793574804229277        19.316892285785730        20.372898971287672     
 Ar   31.538627090637387        31.320491407019336        31.725857564185365     
  4
# step:   32,  t(fs):   160.000,   E =   0.465254E-02,   Ek =   0.472928E-02,   Ep =  -0.767421E-04
 Ar   1.5629263932050386        1.9369714858761835        1.2339540283610235     
 Ar   14.267935980379150        13.578895431335013        12.773453907358300     
 Ar   18.790017231802892        19.330182883464605        20.420203353954360     
 Ar   31.519533894612923        31.294363699324190        31.712802210326331     
  4
# step:   33,  t(fs):   165.000,   E =   0.465312E-02,   Ek =   0.472857E-02,   Ep =  -0.754475E-04
 Ar   1.5528847845998257        1.9386165446066830        1.2136339871839514     
 Ar   14.300647391852005        13.590108993794452        12.759550881206071     
 Ar   18.786449867585727        19.343461027717655        20.467491178897610     
 Ar   31.500431455962449        31.268226933881202        31.699737452712384     
  4
# step:   34,  t(fs):   170.000,   E =   0.465370E-02,   Ek =   0.472786E-02,   Ep =  -0.741613E-04
 Ar   1.5428523177663251        1.9402705564780036        1.1933232521781443     
 Ar   14.333368316665604        13.601334757771594        12.745664201797348     
 Ar   18.782872990027816        19.356726970453000        20.514762657097354     
 Ar   31.481319875540262        31.242081215297393        31.686663388927169     
  4
# step:   35,  t(fs):   175.000,   E =   0.465428E-02,   Ek =   0.472716E-02,   Ep =  -0.728838E-04
 Ar   1.5328288926831808        1.9419334178222123        1.1730217265003868     
 Ar   14.366098481653948        13.612572473827377        12.731793656280507     
 Ar   18.779286872295160        19.369980961109704        20.562018001405214     
 Ar   31.462199253367718        31.215926647240696        31.673580115813905     
  4
# step:   36,  t(fs):   180.000,   E =   0.465485E-02,   Ek =   0.472646E-02,   Ep =  -0.716155E-04
 Ar   1.5228144101627010        1.9436050259096946        1.1527293140499177     
 Ar   14.398837618956870        13.623821895089359        12.717939030146621     
 Ar   18.775691782247925        19.383223246560210        20.609257426330121     
 Ar   31.443069688632509        31.189763332440727        31.660487729473353     
  4
# step:   37,  t(fs):   185.000,   E =   0.465541E-02,   Ek =   0.472577E-02,   Ep =  -0.703568E-04
 Ar   1.5128087718513397        1.9452852789481498        1.1324459194702072     
 Ar   14.431585466034932        13.635082777343376        12.704100107439492     
 Ar   18.772087982425553        19.396454071018681        20.656481147828270     
 Ar   31.423931279688180        31.163591372689783        31.647386325262044     
  4
# step:   38,  t(fs):   190.000,   E =   0.465597E-02,   Ek =   0.472508E-02,   Ep =  -0.691080E-04
 Ar   1.5028118802299435        1.9469740760813525        1.1121714481504970     
 Ar   14.464341765677625        13.646354879119338        12.690276670961085     
 Ar   18.768475730038549        19.409673675955208        20.703689383097696     
 Ar   31.404784124053887        31.137410868844093        31.634275997790734     
  4
# step:   39,  t(fs):   195.000,   E =   0.465653E-02,   Ek =   0.472439E-02,   Ep =  -0.678693E-04
 Ar   1.4928236386137701        1.9486713173876904        1.0919058062271090     
 Ar   14.497106266005146        13.657637961771220        12.676468502472146     
 Ar   18.764855276966717        19.422882300015814        20.750882350377655     
 Ar   31.385628318414369        31.111221920825265        31.621156840923103     
  4
# step:   40,  t(fs):   200.000,   E =   0.465707E-02,   Ek =   0.472372E-02,   Ep =  -0.666413E-04
 Ar   1.4828439511522833        1.9503769038784828        1.0716489005845289     
 Ar   14.529878720463959        13.668931789551339        12.662675382887837     
 Ar   18.761226869763593        19.436080178948185        20.798060268752984     
 Ar   31.366463958620166        31.085024627621983        31.608028947774663     
  4
# step:   41,  t(fs):   205.000,   E =   0.465762E-02,   Ek =   0.472304E-02,   Ep =  -0.654241E-04
 Ar   1.4728727228287313        1.9520907374960865        1.0514006388562667     
 Ar   14.562658887816431        13.680236129678981        12.648897092468204     
 Ar   18.757590749666811        19.449267545533029        20.845223357963640     
 Ar   31.347291139688028        31.058819087291891        31.594892410711903     
  4
# step:   42,  t(fs):   210.000,   E =   0.465816E-02,   Ek =   0.472238E-02,   Ep =  -0.642181E-04
 Ar   1.4629098594595142        1.9538127211117953        1.0311609294255031     
 Ar   14.595446532124765        13.691550752403501        12.635133411003313     
 Ar   18.753947152614167        19.462444629520999        20.892371838219550     
 Ar   31.328109955801558        31.032605396963692        31.581747321351646     
  4
# step:   43,  t(fs):   215.000,   E =   0.465869E-02,   Ek =   0.472172E-02,   Ep =  -0.630235E-04
 Ar   1.4529552676933453        1.9555427585235392        1.0109296814255253     
 Ar   14.628241422729506        13.702875431061969        12.621384117992966     
 Ar   18.750296309265114        19.475611657575019        20.939505930020918     
 Ar   31.308920500312038        31.006383652839460        31.568593770560604     
  4
# step:   44,  t(fs):   220.000,   E =   0.465922E-02,   Ek =   0.472106E-02,   Ep =  -0.618406E-04
 Ar   1.4430088550102123        1.9572807544533914       0.99070680473995731     
 Ar   14.661043334222860        13.714209942131495        12.607648992820826     
 Ar   18.746638445027447        19.488768853217980        20.986625853984076     
 Ar   31.289722865739481        30.980153950197121        31.555431848455150     
  4
# step:   45,  t(fs):   225.000,   E =   0.465975E-02,   Ek =   0.472042E-02,   Ep =  -0.606696E-04
 Ar   1.4330705297201451        1.9590266145448847       0.97049221000279040     
 Ar   14.693852046417103        13.725554065276336        12.593927814922910     
 Ar   18.742973780088892        19.501916436785628        21.033731830673013     
 Ar   31.270517143773858        30.953916383393139        31.542261644401297     
  4
# step:   46,  t(fs):   230.000,   E =   0.466027E-02,   Ek =   0.471978E-02,   Ep =  -0.595107E-04
 Ar   1.4231402009617942        1.9607802453601479       0.95028580859821876     
 Ar   14.726667344308314        13.736907583389929        12.580220363950334     
 Ar   18.739302529453369        19.515054625384522        21.080824080436610     
 Ar   31.251303425276522        30.927671045865388        31.529083247014849     
  4
# step:   47,  t(fs):   235.000,   E =   0.466078E-02,   Ek =   0.471914E-02,   Ep =  -0.583641E-04
 Ar   1.4132177787008251        1.9625415543768665       0.93008751266028511     
 Ar   14.759489018035714        13.748270282631958        12.566526419926255     
 Ar   18.735624902981659        19.528183632854979        21.127902823251709     
 Ar   31.232081800281801        30.901418030136181        31.515896744161761     
  4
# step:   48,  t(fs):   240.000,   E =   0.466129E-02,   Ek =   0.471852E-02,   Ep =  -0.572300E-04
 Ar   1.4033031737281361        1.9643104499850712       0.90989723507234188     
 Ar   14.792316862836834        13.759641952460615        12.552845763396990     
 Ar   18.731941105436228        19.541303669738813        21.174968278571995     
 Ar   31.212852357998802        30.875157427815488        31.502702222958685     
  4
# step:   49,  t(fs):   245.000,   E =   0.466179E-02,   Ek =   0.471790E-02,   Ep =  -0.561086E-04
 Ar   1.3933962976579022        1.9660868414837640       0.88971488946633226     
 Ar   14.825150678998808        13.771022385660171        12.539178175577247     
 Ar   18.728251336529944        19.554414943251746        21.222020665182761     
 Ar   31.193615186813346        30.848889329604308        31.489499769773676     
  4
# step:   50,  t(fs):   250.000,   E =   0.466229E-02,   Ek =   0.471729E-02,   Ep =  -0.550001E-04
 Ar   1.3834970629254524        1.9678706390773848       0.86954039022189678     
 Ar   14.857990271805983        13.782411378364028        12.525523438489474     
 Ar   18.724555790978457        19.567517657260378        21.269060201061553     
 Ar   31.174370374290106        30.822613825298198        31.476289470227091     
  4
# step:   51,  t(fs):   255.000,   E =   0.466279E-02,   Ek =   0.471669E-02,   Ep =  -0.539045E-04
 Ar   1.3736053827849848        1.9696617538721244       0.84937365246530983     
 Ar   14.890835451484149        13.793808730073385        12.511881335097328     
 Ar   18.720854658555979        19.580612012263508        21.316087103244719     
 Ar   31.155118007174885        30.796331003790971        31.463071409192658     
  4
# step:   52,  t(fs):   260.000,   E =   0.466328E-02,   Ek =   0.471610E-02,   Ep =  -0.528219E-04
 Ar   1.3637211713071244        1.9714600978720902       0.82921459206825066     
 Ar   14.923686033141584        13.805214243671674        12.498251649433261     
 Ar   18.717148124154232        19.593698205377709        21.363101587699806     
 Ar   31.135858171397057        30.770040953078517        31.449845670798698     
  4
# step:   53,  t(fs):   265.000,   E =   0.466377E-02,   Ek =   0.471552E-02,   Ep =  -0.517526E-04
 Ar   1.3538443433763290        1.9732655839753301       0.80906312564641492     
 Ar   14.956541836707185        13.816627725434911        12.484634166720262     
 Ar   18.713436367844320        19.606776430326963        21.410103869203827     
 Ar   31.116590952072166        30.743743760262788        31.436612338429512     
  4
# step:   54,  t(fs):   270.000,   E =   0.466425E-02,   Ek =   0.471494E-02,   Ep =  -0.506965E-04
 Ar   1.3439748146881478        1.9750781259697183       0.78891917055796945     
 Ar   14.989402686865887        13.828048985038132        12.471028673487790     
 Ar   18.709719564941306        19.619846877436231        21.457094161227317     
 Ar   31.097316433504659        30.717439511555913        31.423371494726936     
  4
# step:   55,  t(fs):   275.000,   E =   0.466472E-02,   Ek =   0.471438E-02,   Ep =  -0.496538E-04
 Ar   1.3341125017463396        1.9768976385287098       0.76878264490185722     
 Ar   15.022268412991620        13.839477835558069        12.457434957681947     
 Ar   18.705997886071263        19.632909733628782        21.504072675824180     
 Ar   31.078034699190777        30.691128292284432        31.410123221592027     
  4
# step:   56,  t(fs):   280.000,   E =   0.466519E-02,   Ek =   0.471382E-02,   Ep =  -0.486246E-04
 Ar   1.3242573218598512        1.9787240372069683       0.74865346751595496     
 Ar   15.055138849078014        13.850914093472207        12.443852808769948     
 Ar   18.702271497240556        19.645965182427133        21.551039623527199     
 Ar   31.058745831821575        30.664810186893686        31.396867600186908     
  4
# step:   57,  t(fs):   285.000,   E =   0.466566E-02,   Ek =   0.471327E-02,   Ep =  -0.476088E-04
 Ar   1.3144091931396660        1.9805572384358729       0.72853155797508951     
 Ar   15.088013833667061        13.862357578654390        12.430282017838964     
 Ar   18.698540559907197        19.659013403957438        21.597995213249202     
 Ar   31.039449913286070        30.638485278952292        31.383604710936755     
  4
# step:   58,  t(fs):   290.000,   E =   0.466612E-02,   Ek =   0.471273E-02,   Ep =  -0.466066E-04
 Ar   1.3045680344955226        1.9823971595189074       0.70841683658891674     
 Ar   15.120893209775947        13.873808114367142        12.416722377689410     
 Ar   18.694805231054001        19.672054574957173        21.644939652189777     
 Ar   31.020147024674525        30.612153651156770        31.370334633531908     
  4
# step:   59,  t(fs):   295.000,   E =   0.466658E-02,   Ek =   0.471220E-02,   Ep =  -0.456179E-04
 Ar   1.2947337656325120        1.9842437186269379       0.68830922439966724     
 Ar   15.153776824822259        13.885265527250844        12.403173682922775     
 Ar   18.691065663263377        19.685088868785957        21.691873145747433     
 Ar   31.000837246281847        30.585815385336250        31.357057446930135     
  4
# step:   60,  t(fs):   300.000,   E =   0.466704E-02,   Ek =   0.471168E-02,   Ep =  -0.446428E-04
 Ar   1.2849063070475550        1.9860968347933843       0.66820864317976358     
 Ar   15.186664530547757        13.896729647309932        12.389635730024077     
 Ar   18.687322004793568        19.698116455439358        21.738795897437150     
 Ar   30.981520657611114        30.559470562457317        31.343773229359019     
  4
# step:   61,  t(fs):   305.000,   E =   0.466748E-02,   Ek =   0.471117E-02,   Ep =  -0.436813E-04
 Ar   1.2750855800257670        1.9879564279092876       0.64811501542931327     
 Ar   15.219556182940892        13.908200307896260        12.376108317439060     
 Ar   18.683574399656123        19.711137501565517        21.785708108813189     
 Ar   30.962197337377212        30.533119262628926        31.330482058318449     
  4
# step:   62,  t(fs):   310.000,   E =   0.466793E-02,   Ek =   0.471066E-02,   Ep =  -0.427334E-04
 Ar   1.2652715066367113        1.9898224187182822       0.62802826437348158     
 Ar   15.252451642158260        13.919677345689792        12.362591245646227     
 Ar   18.679822987694443        19.724152170484473        21.832609979397041     
 Ar   30.942867363510580        30.506761565107443        31.317184010583262     
  4
# step:   63,  t(fs):   315.000,   E =   0.466837E-02,   Ek =   0.471017E-02,   Ep =  -0.417990E-04
 Ar   1.2554640097305483        1.9916947288114719       0.60794831395974802     
 Ar   15.285350772445156        13.931160600676765        12.349084317223838     
 Ar   18.676067904663235        19.737160622209988        21.879501706610451     
 Ar   30.923530813161054        30.480397548301763        31.303879162205973     
  4
# step:   64,  t(fs):   320.000,   E =   0.466880E-02,   Ek =   0.470968E-02,   Ep =  -0.408782E-04
 Ar   1.2456630129340831        1.9935732806222195       0.58787508885505169     
 Ar   15.318253442055402        13.942649916125481        12.335587336911980     
 Ar   18.672309282308678        19.750163013473760        21.926383485713330     
 Ar   30.904187762701831        30.454027289778526        31.290567588519650     
  4
# step:   65,  t(fs):   325.000,   E =   0.466923E-02,   Ek =   0.470921E-02,   Ep =  -0.399710E-04
 Ar   1.2358684406467160        1.9954579974208504       0.56780851444282787     
 Ar   15.351159523170603        13.954145138559840        12.322100111669842     
 Ar   18.668547248449165        19.763159497751889        21.973255509746487     
 Ar   30.884838287733508        30.427650866267406        31.277249364140854     
  4
# step:   66,  t(fs):   330.000,   E =   0.466966E-02,   Ek =   0.470874E-02,   Ep =  -0.390772E-04
 Ar   1.2260802180363002        1.9973488033092763       0.54774851681994130     
 Ar   15.384068891818972        13.965646117730811        12.308622450728326     
 Ar   18.664781927056488        19.776150225293406        22.020117969479024     
 Ar   30.865482463088235        30.401268353666492        31.263924562972718     
  4
# step:   67,  t(fs):   335.000,   E =   0.467008E-02,   Ek =   0.470828E-02,   Ep =  -0.381968E-04
 Ar   1.2162982710349104        1.9992456232155436       0.52769502279351888     
 Ar   15.416981427793885        13.977152706585931        12.295154165638102     
 Ar   18.661013438337264        19.789135343150775        22.066971053360266     
 Ar   30.846120362833936        30.374879827047735        31.250593258208120     
  4
# step:   68,  t(fs):   340.000,   E =   0.467050E-02,   Ek =   0.470783E-02,   Ep =  -0.373299E-04
 Ar   1.2065225263345269        2.0011483828883079       0.50764795987768663     